    1C
    1UUSER                                                              
    1UDATE              10.june.2026                                    
    1UTIME              04:35:37                                        
    1UHOST                                                              
    1UPGM               CalculiX                                        
    1UVERSION           Version 2.21                             
    1UCOMPILETIME       Sat Jul 29 10:52:01 CEST 2023                    
    1UDIR                                                               
    1UDBN                                                               
    1UMAT    1ALUMINIUM_6061_T6                                         
    2C                          4041                                     1
 -1         1 4.00000E+02 7.34788E-15 3.00000E+01
 -1         2 0.00000E+00 7.34788E-15 3.00000E+01
 -1         3 6.00000E+02 7.34788E-15 3.00000E+01
 -1         4 4.00000E+02-7.76457E+00 2.89778E+01
 -1         5 4.00000E+02-1.50000E+01 2.59808E+01
 -1         6 4.00000E+02-2.12132E+01 2.12132E+01
 -1         7 4.00000E+02-2.59808E+01 1.50000E+01
 -1         8 4.00000E+02-2.89778E+01 7.76457E+00
 -1         9 4.00000E+02-3.00000E+01 1.51596E-14
 -1        10 4.00000E+02-2.89778E+01-7.76457E+00
 -1        11 4.00000E+02-2.59808E+01-1.50000E+01
 -1        12 4.00000E+02-2.12132E+01-2.12132E+01
 -1        13 4.00000E+02-1.50000E+01-2.59808E+01
 -1        14 4.00000E+02-7.76457E+00-2.89778E+01
 -1        15 4.00000E+02-1.36901E-13-3.00000E+01
 -1        16 4.00000E+02 7.76457E+00-2.89778E+01
 -1        17 4.00000E+02 1.50000E+01-2.59808E+01
 -1        18 4.00000E+02 2.12132E+01-2.12132E+01
 -1        19 4.00000E+02 2.59808E+01-1.50000E+01
 -1        20 4.00000E+02 2.89778E+01-7.76457E+00
 -1        21 4.00000E+02 3.00000E+01-1.92028E-13
 -1        22 4.00000E+02 2.89778E+01 7.76457E+00
 -1        23 4.00000E+02 2.59808E+01 1.50000E+01
 -1        24 4.00000E+02 2.12132E+01 2.12132E+01
 -1        25 4.00000E+02 1.50000E+01 2.59808E+01
 -1        26 4.00000E+02 7.76457E+00 2.89778E+01
 -1        27 8.00000E+00 7.34788E-15 3.00000E+01
 -1        28 1.60000E+01 7.34788E-15 3.00000E+01
 -1        29 2.40000E+01 7.34788E-15 3.00000E+01
 -1        30 3.20000E+01 7.34788E-15 3.00000E+01
 -1        31 4.00000E+01 7.34788E-15 3.00000E+01
 -1        32 4.80000E+01 7.34788E-15 3.00000E+01
 -1        33 5.60000E+01 7.34788E-15 3.00000E+01
 -1        34 6.40000E+01 7.34788E-15 3.00000E+01
 -1        35 7.20000E+01 7.34788E-15 3.00000E+01
 -1        36 8.00000E+01 7.34788E-15 3.00000E+01
 -1        37 8.80000E+01 7.34788E-15 3.00000E+01
 -1        38 9.60000E+01 7.34788E-15 3.00000E+01
 -1        39 1.04000E+02 7.34788E-15 3.00000E+01
 -1        40 1.12000E+02 7.34788E-15 3.00000E+01
 -1        41 1.20000E+02 7.34788E-15 3.00000E+01
 -1        42 1.28000E+02 7.34788E-15 3.00000E+01
 -1        43 1.36000E+02 7.34788E-15 3.00000E+01
 -1        44 1.44000E+02 7.34788E-15 3.00000E+01
 -1        45 1.52000E+02 7.34788E-15 3.00000E+01
 -1        46 1.60000E+02 7.34788E-15 3.00000E+01
 -1        47 1.68000E+02 7.34788E-15 3.00000E+01
 -1        48 1.76000E+02 7.34788E-15 3.00000E+01
 -1        49 1.84000E+02 7.34788E-15 3.00000E+01
 -1        50 1.92000E+02 7.34788E-15 3.00000E+01
 -1        51 2.00000E+02 7.34788E-15 3.00000E+01
 -1        52 2.08000E+02 7.34788E-15 3.00000E+01
 -1        53 2.16000E+02 7.34788E-15 3.00000E+01
 -1        54 2.24000E+02 7.34788E-15 3.00000E+01
 -1        55 2.32000E+02 7.34788E-15 3.00000E+01
 -1        56 2.40000E+02 7.34788E-15 3.00000E+01
 -1        57 2.48000E+02 7.34788E-15 3.00000E+01
 -1        58 2.56000E+02 7.34788E-15 3.00000E+01
 -1        59 2.64000E+02 7.34788E-15 3.00000E+01
 -1        60 2.72000E+02 7.34788E-15 3.00000E+01
 -1        61 2.80000E+02 7.34788E-15 3.00000E+01
 -1        62 2.88000E+02 7.34788E-15 3.00000E+01
 -1        63 2.96000E+02 7.34788E-15 3.00000E+01
 -1        64 3.04000E+02 7.34788E-15 3.00000E+01
 -1        65 3.12000E+02 7.34788E-15 3.00000E+01
 -1        66 3.20000E+02 7.34788E-15 3.00000E+01
 -1        67 3.28000E+02 7.34788E-15 3.00000E+01
 -1        68 3.36000E+02 7.34788E-15 3.00000E+01
 -1        69 3.44000E+02 7.34788E-15 3.00000E+01
 -1        70 3.52000E+02 7.34788E-15 3.00000E+01
 -1        71 3.60000E+02 7.34788E-15 3.00000E+01
 -1        72 3.68000E+02 7.34788E-15 3.00000E+01
 -1        73 3.76000E+02 7.34788E-15 3.00000E+01
 -1        74 3.84000E+02 7.34788E-15 3.00000E+01
 -1        75 3.92000E+02 7.34788E-15 3.00000E+01
 -1        76 0.00000E+00-7.76457E+00 2.89778E+01
 -1        77 0.00000E+00-1.50000E+01 2.59808E+01
 -1        78 0.00000E+00-2.12132E+01 2.12132E+01
 -1        79 0.00000E+00-2.59808E+01 1.50000E+01
 -1        80 0.00000E+00-2.89778E+01 7.76457E+00
 -1        81 0.00000E+00-3.00000E+01 1.51596E-14
 -1        82 0.00000E+00-2.89778E+01-7.76457E+00
 -1        83 0.00000E+00-2.59808E+01-1.50000E+01
 -1        84 0.00000E+00-2.12132E+01-2.12132E+01
 -1        85 0.00000E+00-1.50000E+01-2.59808E+01
 -1        86 0.00000E+00-7.76457E+00-2.89778E+01
 -1        87 0.00000E+00-1.36901E-13-3.00000E+01
 -1        88 0.00000E+00 7.76457E+00-2.89778E+01
 -1        89 0.00000E+00 1.50000E+01-2.59808E+01
 -1        90 0.00000E+00 2.12132E+01-2.12132E+01
 -1        91 0.00000E+00 2.59808E+01-1.50000E+01
 -1        92 0.00000E+00 2.89778E+01-7.76457E+00
 -1        93 0.00000E+00 3.00000E+01-1.92028E-13
 -1        94 0.00000E+00 2.89778E+01 7.76457E+00
 -1        95 0.00000E+00 2.59808E+01 1.50000E+01
 -1        96 0.00000E+00 2.12132E+01 2.12132E+01
 -1        97 0.00000E+00 1.50000E+01 2.59808E+01
 -1        98 0.00000E+00 7.76457E+00 2.89778E+01
 -1        99 6.00000E+02-7.76457E+00 2.89778E+01
 -1       100 6.00000E+02-1.50000E+01 2.59808E+01
 -1       101 6.00000E+02-2.12132E+01 2.12132E+01
 -1       102 6.00000E+02-2.59808E+01 1.50000E+01
 -1       103 6.00000E+02-2.89778E+01 7.76457E+00
 -1       104 6.00000E+02-3.00000E+01 1.51596E-14
 -1       105 6.00000E+02-2.89778E+01-7.76457E+00
 -1       106 6.00000E+02-2.59808E+01-1.50000E+01
 -1       107 6.00000E+02-2.12132E+01-2.12132E+01
 -1       108 6.00000E+02-1.50000E+01-2.59808E+01
 -1       109 6.00000E+02-7.76457E+00-2.89778E+01
 -1       110 6.00000E+02-1.36901E-13-3.00000E+01
 -1       111 6.00000E+02 7.76457E+00-2.89778E+01
 -1       112 6.00000E+02 1.50000E+01-2.59808E+01
 -1       113 6.00000E+02 2.12132E+01-2.12132E+01
 -1       114 6.00000E+02 2.59808E+01-1.50000E+01
 -1       115 6.00000E+02 2.89778E+01-7.76457E+00
 -1       116 6.00000E+02 3.00000E+01-1.92028E-13
 -1       117 6.00000E+02 2.89778E+01 7.76457E+00
 -1       118 6.00000E+02 2.59808E+01 1.50000E+01
 -1       119 6.00000E+02 2.12132E+01 2.12132E+01
 -1       120 6.00000E+02 1.50000E+01 2.59808E+01
 -1       121 6.00000E+02 7.76457E+00 2.89778E+01
 -1       122 4.08000E+02 7.34788E-15 3.00000E+01
 -1       123 4.16000E+02 7.34788E-15 3.00000E+01
 -1       124 4.24000E+02 7.34788E-15 3.00000E+01
 -1       125 4.32000E+02 7.34788E-15 3.00000E+01
 -1       126 4.40000E+02 7.34788E-15 3.00000E+01
 -1       127 4.48000E+02 7.34788E-15 3.00000E+01
 -1       128 4.56000E+02 7.34788E-15 3.00000E+01
 -1       129 4.64000E+02 7.34788E-15 3.00000E+01
 -1       130 4.72000E+02 7.34788E-15 3.00000E+01
 -1       131 4.80000E+02 7.34788E-15 3.00000E+01
 -1       132 4.88000E+02 7.34788E-15 3.00000E+01
 -1       133 4.96000E+02 7.34788E-15 3.00000E+01
 -1       134 5.04000E+02 7.34788E-15 3.00000E+01
 -1       135 5.12000E+02 7.34788E-15 3.00000E+01
 -1       136 5.20000E+02 7.34788E-15 3.00000E+01
 -1       137 5.28000E+02 7.34788E-15 3.00000E+01
 -1       138 5.36000E+02 7.34788E-15 3.00000E+01
 -1       139 5.44000E+02 7.34788E-15 3.00000E+01
 -1       140 5.52000E+02 7.34788E-15 3.00000E+01
 -1       141 5.60000E+02 7.34788E-15 3.00000E+01
 -1       142 5.68000E+02 7.34788E-15 3.00000E+01
 -1       143 5.76000E+02 7.34788E-15 3.00000E+01
 -1       144 5.84000E+02 7.34788E-15 3.00000E+01
 -1       145 5.92000E+02 7.34788E-15 3.00000E+01
 -1       146 3.94748E+02 1.86020E+01 2.35365E+01
 -1       147 3.94639E+02 1.17852E+01 2.75882E+01
 -1       148 3.88906E+02 1.40294E+01 2.65175E+01
 -1       149 5.25240E+00-1.86019E+01 2.35365E+01
 -1       150 5.36116E+00-1.17852E+01 2.75882E+01
 -1       151 1.10935E+01-1.40294E+01 2.65175E+01
 -1       152 3.83377E+02 2.77101E+01 1.14958E+01
 -1       153 3.78639E+02 2.44917E+01 1.73251E+01
 -1       154 3.76877E+02 2.85147E+01 9.32270E+00
 -1       155 3.70795E+02 2.64062E+01 1.42378E+01
 -1       156 3.49701E+01-2.76602E+01 1.16153E+01
 -1       157 4.00480E+01-2.89497E+01 7.86877E+00
 -1       158 3.29508E+01-2.96067E+01 4.84165E+00
 -1       159 3.49457E+02-7.54807E+00 2.90349E+01
 -1       160 3.56713E+02-7.17952E+00 2.91282E+01
 -1       161 3.12206E+01-2.52638E+01 1.61783E+01
 -1       162 2.68085E+01-2.37704E+01 1.83022E+01
 -1       163 3.17820E+01-2.09638E+01 2.14597E+01
 -1       164 4.04966E+01-2.99108E+01 2.31207E+00
 -1       165 6.93786E+01 1.94414E+01 2.28480E+01
 -1       166 6.93251E+01 2.56365E+01 1.55810E+01
 -1       167 7.44882E+01 2.27154E+01 1.95962E+01
 -1       168 6.36732E+01 2.19128E+01 2.04897E+01
 -1       169 1.32443E+01-2.35276E+01-1.86132E+01
 -1       170 1.12876E+01-1.73857E+01-2.44487E+01
 -1       171 6.15288E+00-1.97635E+01-2.25700E+01
 -1       172 1.74735E+01-1.74348E+01-2.44136E+01
 -1       173 8.33683E+00-2.66869E+01 1.37043E+01
 -1       174 6.27404E+00-2.29792E+01 1.92861E+01
 -1       175 1.28643E+01-2.39189E+01 1.81076E+01
 -1       176 1.21133E+01-1.89818E+01 2.32312E+01
 -1       177 6.18535E+00-1.33793E+01-2.68513E+01
 -1       178 3.93023E+02 2.34203E+01 1.87480E+01
 -1       179 3.87462E+02 1.92881E+01 2.29776E+01
 -1       180 3.85626E+02 2.44017E+01 1.74516E+01
 -1       181 2.34437E+01 1.83704E+01 2.37177E+01
 -1       182 1.72848E+01 2.14442E+01 2.09797E+01
 -1       183 2.51806E+01 2.31273E+01 1.91083E+01
 -1       184 1.99077E+01 2.54705E+01 1.58510E+01
 -1       185 3.75686E+02-1.91497E+01 2.30931E+01
 -1       186 3.82605E+02-2.14452E+01 2.09786E+01
 -1       187 3.76520E+02-2.42780E+01 1.76233E+01
 -1       188 3.82141E+02-2.54294E+01 1.59169E+01
 -1       189 3.23443E+01-1.55271E+01 2.56692E+01
 -1       190 2.51619E+01-1.91179E+01 2.31194E+01
 -1       191 2.71931E+01-1.27077E+01 2.71756E+01
 -1       192 1.25790E+02 1.08342E+01-2.79754E+01
 -1       193 1.18443E+02 8.88738E+00-2.86534E+01
 -1       194 1.22486E+02 3.55178E+00-2.97890E+01
 -1       195 2.06988E+01-2.47373E+01 1.69726E+01
 -1       196 1.78175E+01-2.00941E+01 2.22762E+01
 -1       197 2.67993E+01 6.02603E+00 2.93886E+01
 -1       198 1.95789E+01 7.66327E+00 2.90047E+01
 -1       199 3.67428E+02 1.69935E+01 2.47229E+01
 -1       200 3.75511E+02 1.85849E+01 2.35500E+01
 -1       201 3.72362E+02 1.28002E+01 2.71322E+01
 -1       202 3.73433E+02-5.99086E+00 2.93957E+01
 -1       203 3.80166E+02-7.64713E+00 2.90090E+01
 -1       204 3.86566E+02-6.09647E+00 2.93740E+01
 -1       205 3.86639E+02-1.23146E+01 2.73560E+01
 -1       206 3.72070E+02 2.22245E+01 2.01513E+01
 -1       207 3.94157E+02-2.33312E+01 1.88589E+01
 -1       208 3.95119E+02-1.87621E+01 2.34090E+01
 -1       209 1.34344E+01 6.09647E+00 2.93740E+01
 -1       210 1.33607E+01 1.23146E+01 2.73560E+01
 -1       211 5.79927E+00 2.31997E+01 1.90204E+01
 -1       212 4.88103E+00 1.87621E+01 2.34091E+01
 -1       213 3.79786E+02 5.76759E+00 2.94404E+01
 -1       214 3.84680E+02 8.13015E+00 2.88773E+01
 -1       215 2.02933E+01-5.72930E+00 2.94478E+01
 -1       216 1.53202E+01-8.13015E+00 2.88773E+01
 -1       217 3.80571E+02 1.35170E+01 2.67823E+01
 -1       218 1.93619E+01-1.33821E+01 2.68499E+01
 -1       219 5.01161E+00-5.20910E+00 2.95443E+01
 -1       220 5.63525E+00 4.82304E+00 2.96098E+01
 -1       221 3.94988E+02 5.20910E+00 2.95443E+01
 -1       222 1.15721E+01 1.90767E+01 2.31534E+01
 -1       223 7.39599E+00 1.50995E+01 2.59231E+01
 -1       224 3.94365E+02-4.82304E+00 2.96098E+01
 -1       225 3.88428E+02-1.90767E+01 2.31534E+01
 -1       226 3.92604E+02-1.50995E+01 2.59231E+01
 -1       227 3.81439E+02-1.55186E+01 2.56744E+01
 -1       228 6.52777E+00 1.03034E+01 2.81752E+01
 -1       229 1.84694E+01 1.53648E+01 2.57667E+01
 -1       230 3.81754E+02 2.02379E+01 2.21456E+01
 -1       231 3.93472E+02-1.03034E+01 2.81752E+01
 -1       232 1.18488E+01 2.51833E+01 1.63035E+01
 -1       233 5.69706E+00 2.69473E+01 1.31849E+01
 -1       234 3.88356E+02-2.48888E+01 1.67495E+01
 -1       235 3.93759E+02-2.71114E+01 1.28441E+01
 -1       236 5.91732E+01 6.40177E+00 2.93090E+01
 -1       237 6.59373E+01 6.31368E+00 2.93281E+01
 -1       238 4.52856E+01 2.59456E+01 1.50607E+01
 -1       239 5.04931E+01 2.71983E+01 1.26590E+01
 -1       240 5.10770E+01 2.30478E+01 1.92042E+01
 -1       241 4.27353E+01 2.84350E+01 9.56286E+00
 -1       242 1.18973E+02 1.44945E+01-2.62661E+01
 -1       243 9.48574E+01 2.11082E+01 2.13177E+01
 -1       244 8.74180E+01 2.09094E+01 2.15127E+01
 -1       245 8.90854E+01 2.42458E+01 1.76675E+01
 -1       246 3.93066E+02-2.99268E+01-2.09446E+00
 -1       247 3.93947E+02-2.94587E+01 5.67342E+00
 -1       248 3.83461E+02 2.96198E+01 4.76129E+00
 -1       249 3.36122E+02 2.69453E+01 1.31890E+01
 -1       250 3.36405E+02 2.93517E+01 6.20305E+00
 -1       251 3.42209E+02 2.84325E+01 9.57038E+00
 -1       252 3.42647E+02 2.99354E+01 1.96786E+00
 -1       253 3.77732E+02 2.98642E+01 2.85154E+00
 -1       254 6.01285E+01-2.43007E+01-1.75920E+01
 -1       255 6.51343E+01-2.42819E+01-1.76179E+01
 -1       256 6.10436E+01-2.05263E+01-2.18786E+01
 -1       257 6.26896E+01-2.72123E+01-1.26290E+01
 -1       258 8.93100E+01 1.68549E+01 2.48176E+01
 -1       259 3.39864E+02 5.71218E+00 2.94512E+01
 -1       260 1.07773E+02 1.95770E+01-2.27319E+01
 -1       261 1.13153E+02 2.27789E+01-1.95224E+01
 -1       262 1.08014E+02 2.48113E+01-1.68641E+01
 -1       263 9.17960E+01 2.51868E+01-1.62980E+01
 -1       264 8.61177E+01 2.61374E+01-1.47254E+01
 -1       265 8.92434E+01 2.15202E+01-2.09017E+01
 -1       266 9.07910E+01 2.83016E+01-9.95090E+00
 -1       267 1.03950E+01-6.48604E+00 2.92905E+01
 -1       268 3.89605E+02 6.48604E+00 2.92905E+01
 -1       269 6.06192E+01-5.19817E+00 2.95462E+01
 -1       270 1.13393E+02 1.70022E+01-2.47169E+01
 -1       271 2.74499E+02 2.70055E+01-1.30653E+01
 -1       272 2.81011E+02 2.66109E+01-1.38513E+01
 -1       273 2.77765E+02 2.89686E+01-7.79858E+00
 -1       274 2.76156E+02 2.24393E+01-1.99117E+01
 -1       275 2.87229E+02-2.96840E+01 4.34311E+00
 -1       276 2.86403E+02-2.97235E+01-4.06381E+00
 -1       277 2.79884E+02-2.99820E+01 1.03936E+00
 -1       278 5.43796E+01-9.04278E+00 2.86047E+01
 -1       279 4.63264E+01-1.28171E+01 2.71242E+01
 -1       280 4.93987E+01-5.78720E+00 2.94365E+01
 -1       281 1.98790E+01 2.99807E+01 1.07701E+00
 -1       282 2.13081E+01 2.93619E+01 6.15478E+00
 -1       283 1.53447E+01 2.97161E+01 4.11761E+00
 -1       284 9.68227E+01 2.21241E+01-2.02614E+01
 -1       285 9.42867E+01 1.62818E+01-2.51973E+01
 -1       286 3.45240E+02 1.02861E+01 2.81815E+01
 -1       287 3.52706E+02 1.19879E+01 2.75007E+01
 -1       288 3.49972E+02 5.95539E+00 2.94029E+01
 -1       289 3.63906E+02 2.65357E+01-1.39948E+01
 -1       290 3.64653E+02 2.91605E+01-7.04749E+00
 -1       291 3.59256E+02 2.83126E+01-9.91940E+00
 -1       292 3.58701E+02 2.98661E+01-2.83082E+00
 -1       293 4.91674E+01-1.75303E+01-2.43452E+01
 -1       294 5.59781E+01-1.70263E+01-2.47003E+01
 -1       295 5.13645E+01-1.24064E+01-2.73145E+01
 -1       296 5.40273E+01-2.28821E+01-1.94013E+01
 -1       297 3.68938E+02 2.43063E+01-1.75841E+01
 -1       298 3.69899E+02 2.76759E+01-1.15778E+01
 -1       299 3.74298E+02 2.57694E+01-1.53603E+01
 -1       300 3.15811E+02 1.63189E+01 2.51732E+01
 -1       301 3.20573E+02 1.08543E+01 2.79676E+01
 -1       302 3.14657E+02 1.11488E+01 2.78514E+01
 -1       303 3.20473E+02 1.92171E+01 2.30370E+01
 -1       304 2.79577E+02-2.93008E+01-6.43921E+00
 -1       305 5.85735E+00-2.48598E+01-1.67926E+01
 -1       306 2.65012E+02-2.27385E+01 1.95694E+01
 -1       307 2.67330E+02-2.60286E+01 1.49169E+01
 -1       308 2.59997E+02-2.58358E+01 1.52483E+01
 -1       309 3.22748E+02-2.89632E+01-7.81873E+00
 -1       310 3.13880E+02-2.91746E+01-6.98879E+00
 -1       311 3.18644E+02-2.99973E+01-4.05233E-01
 -1       312 3.18519E+02-2.67491E+01-1.35826E+01
 -1       313 3.94627E+02-2.38987E+01-1.81343E+01
 -1       314 3.38165E+02-5.53017E+00-2.94859E+01
 -1       315 3.32039E+02-2.97894E+00-2.98517E+01
 -1       316 3.32752E+02-1.12666E+01-2.78040E+01
 -1       317 3.37372E+02 1.00315E+00-2.99832E+01
 -1       318 1.17251E+02-2.39785E+01-1.80286E+01
 -1       319 1.15043E+02-1.74002E+01-2.44383E+01
 -1       320 1.10319E+02-2.09976E+01-2.14266E+01
 -1       321 3.12882E+02 2.97534E+01-3.83894E+00
 -1       322 3.19262E+02 2.90635E+01-7.43737E+00
 -1       323 3.17814E+02 2.99736E+01 1.25760E+00
 -1       324 6.07050E+00 2.33518E+01-1.88333E+01
 -1       325 6.35734E+00 2.72752E+01-1.24926E+01
 -1       326 3.93483E+02 2.72717E+01-1.25002E+01
 -1       327 3.88771E+02 2.92714E+01-6.57141E+00
 -1       328 3.86634E+02 2.72835E+01-1.24744E+01
 -1       329 3.95245E+02-9.68713E+00-2.83929E+01
 -1       330 3.92390E+02-1.41166E+01-2.64712E+01
 -1       331 3.93947E+02 2.29146E+01-1.93629E+01
 -1       332 7.08522E+01-1.85319E+01 2.35917E+01
 -1       333 6.23350E+01-1.76695E+01 2.42444E+01
 -1       334 6.75794E+01-1.36831E+01 2.66978E+01
 -1       335 6.53522E+01-2.20660E+01 2.03246E+01
 -1       336 3.24405E+02-2.52505E+01-1.61991E+01
 -1       337 3.23630E+02-1.97033E+01-2.26225E+01
 -1       338 3.18343E+02-2.28002E+01-1.94974E+01
 -1       339 3.18100E+02-1.64154E+01-2.51105E+01
 -1       340 7.41736E+01-5.12707E+00 2.95586E+01
 -1       341 7.29607E+01-1.15072E+01 2.77053E+01
 -1       342 6.68417E+01-6.27887E+00 2.93356E+01
 -1       343 3.70054E+02-2.31414E+01 1.90913E+01
 -1       344 2.62196E+02-2.84703E+01 9.45727E+00
 -1       345 3.69052E+02-1.75710E+01 2.43158E+01
 -1       346 3.31887E+02-2.92023E+01 6.87201E+00
 -1       347 3.37419E+02-2.78989E+01 1.10295E+01
 -1       348 3.40070E+02-2.95618E+01 5.10907E+00
 -1       349 3.30497E+02-2.57563E+01 1.53822E+01
 -1       350 3.30660E+02 2.79431E+01 1.09171E+01
 -1       351 3.31942E+02 2.37812E+01 1.82882E+01
 -1       352 3.21460E+02 5.74804E+00-2.94442E+01
 -1       353 3.22011E+02-1.45909E+00-2.99645E+01
 -1       354 3.28676E+02 2.19323E+00-2.99197E+01
 -1       355 4.71884E+00-2.82293E+01 1.01541E+01
 -1       356 1.02367E+01-2.91550E+01 7.07024E+00
 -1       357 4.95832E+00-2.98054E+01 3.41178E+00
 -1       358 3.26455E+02-6.36720E+00-2.93165E+01
 -1       359 3.27860E+02 9.73607E+00-2.83762E+01
 -1       360 3.46138E+02-2.75226E+01 1.19375E+01
 -1       361 3.94905E+02 2.82528E+01 1.00885E+01
 -1       362 3.89409E+02 2.91045E+01 7.27506E+00
 -1       363 3.94936E+02 2.97888E+01 3.55316E+00
 -1       364 3.38437E+02-2.54397E+01 1.59003E+01
 -1       365 6.18942E+01 1.08780E+01 2.79584E+01
 -1       366 6.22471E+01 1.71749E+01 2.45972E+01
 -1       367 6.75609E+01 1.26302E+01 2.72117E+01
 -1       368 3.32681E+02 6.48347E+00 2.92910E+01
 -1       369 3.32771E+02 1.38477E+01 2.66128E+01
 -1       370 3.38202E+02 1.08110E+01 2.79843E+01
 -1       371 3.47924E+02-2.97259E+01 4.04606E+00
 -1       372 6.59627E+00 2.96762E+01-4.39548E+00
 -1       373 3.29504E+02 2.52869E+01-1.61422E+01
 -1       374 3.24091E+02 2.18050E+01-2.06044E+01
 -1       375 3.31655E+02 2.08372E+01-2.15827E+01
 -1       376 7.58818E+01 2.99668E+01-1.41003E+00
 -1       377 7.22802E+01 2.97758E+01 3.66053E+00
 -1       378 7.01998E+01 2.98392E+01-3.10218E+00
 -1       379 5.67402E+01 1.41430E+01 2.64570E+01
 -1       380 1.11911E+02 9.19592E+00-2.85558E+01
 -1       381 1.07767E+02 1.43778E+01-2.63302E+01
 -1       382 6.09020E+01-1.15911E+01 2.76703E+01
 -1       383 5.42793E+01-1.61889E+01 2.52571E+01
 -1       384 4.70747E+01-1.91449E+01 2.30970E+01
 -1       385 3.89997E+02 2.99977E+01 3.69788E-01
 -1       386 3.48502E+02 1.80883E+01 2.39335E+01
 -1       387 3.42194E+02 2.04904E+01 2.19122E+01
 -1       388 3.47455E+02 2.32544E+01 1.89534E+01
 -1       389 7.05341E+00 1.21551E+01-2.74272E+01
 -1       390 5.22148E+00 4.95907E+00-2.95873E+01
 -1       391 5.19299E+01-2.20720E+01 2.03182E+01
 -1       392 4.85525E+01 5.69898E+00 2.94537E+01
 -1       393 4.72134E+01-2.49910E+01 1.65966E+01
 -1       394 4.20282E+01-2.25973E+01 1.97322E+01
 -1       395 1.08879E+01 2.85027E+01 9.35935E+00
 -1       396 8.70339E+00 2.99269E+01 2.09327E+00
 -1       397 1.74763E+01 2.81201E+01 1.04528E+01
 -1       398 3.86888E+02-2.80419E+01 1.06607E+01
 -1       399 3.88670E+02-2.97424E+01 3.92332E+00
 -1       400 3.83288E+02-2.93741E+01 6.09611E+00
 -1       401 7.99180E+01-4.86957E+00-2.96021E+01
 -1       402 7.38639E+01-9.68462E+00-2.83938E+01
 -1       403 8.09699E+01-1.28824E+01-2.70932E+01
 -1       404 2.25121E+02-2.12966E+01 2.11295E+01
 -1       405 2.28292E+02-2.51265E+01 1.63909E+01
 -1       406 2.21468E+02-2.53644E+01 1.60202E+01
 -1       407 2.23916E+02-2.79866E+01 1.08051E+01
 -1       408 7.55823E+01 2.88400E+01-8.26170E+00
 -1       409 6.93226E+01 2.81387E+01-1.04025E+01
 -1       410 8.08496E+01 2.97784E+01-3.63992E+00
 -1       411 2.82631E+01 2.62607E+01-1.45043E+01
 -1       412 2.50438E+01 2.19559E+01-2.04436E+01
 -1       413 3.33762E+01 2.32949E+01-1.89036E+01
 -1       414 3.30167E+02-2.72979E+01-1.24428E+01
 -1       415 3.34863E+02-2.89445E+01-7.88789E+00
 -1       416 3.35814E+02-2.55586E+01-1.57085E+01
 -1       417 3.82080E+02-1.78729E+01-2.40948E+01
 -1       418 3.84484E+02-2.27663E+01-1.95370E+01
 -1       419 3.89053E+02-1.99146E+01-2.24368E+01
 -1       420 3.29017E+02-2.94283E+01-5.82899E+00
 -1       421 3.63915E+02-2.14078E+01-2.10168E+01
 -1       422 3.70546E+02-2.21614E+01-2.02206E+01
 -1       423 3.68447E+02-1.80421E+01-2.39683E+01
 -1       424 2.62681E+01-6.64597E+00 2.92546E+01
 -1       425 3.43369E+02-2.57143E+01-1.54523E+01
 -1       426 3.38554E+02-2.20405E+01-2.03523E+01
 -1       427 3.75298E+02-1.79472E+01-2.40395E+01
 -1       428 3.47505E+02-2.18574E+01-2.05488E+01
 -1       429 3.56553E+02-2.32178E+01-1.89982E+01
 -1       430 3.64652E+02-2.53551E+01-1.60350E+01
 -1       431 3.73938E+02 6.82753E+00 2.92128E+01
 -1       432 2.89742E+02 9.30532E+00 2.85204E+01
 -1       433 2.89352E+02 1.58510E+01 2.54705E+01
 -1       434 2.96052E+02 1.43114E+01 2.63663E+01
 -1       435 3.57393E+02-2.68920E+01-1.32974E+01
 -1       436 2.93374E+02 2.00483E+01 2.23174E+01
 -1       437 3.11926E+01-1.58351E+01-2.54804E+01
 -1       438 2.90832E+01-2.12911E+01-2.11351E+01
 -1       439 3.60132E+01-2.00615E+01-2.23055E+01
 -1       440 2.41015E+01-1.66298E+01-2.49690E+01
 -1       441 3.61354E+01-2.42390E+01-1.76769E+01
 -1       442 4.21998E+01-2.32162E+01-1.90003E+01
 -1       443 4.24873E+01-2.70590E+01-1.29542E+01
 -1       444 3.33653E+02-3.00000E+01 1.12581E-02
 -1       445 1.46426E+02-2.85083E+01-9.34218E+00
 -1       446 1.47782E+02-2.98396E+01-3.09815E+00
 -1       447 1.52414E+02-2.84228E+01-9.59905E+00
 -1       448 1.06353E+02 1.80987E+01 2.39257E+01
 -1       449 1.13353E+02 2.16419E+01 2.07757E+01
 -1       450 1.12519E+02 1.57542E+01 2.55305E+01
 -1       451 3.41626E+02-2.98909E+01-2.55652E+00
 -1       452 3.88857E+02 1.93201E+01-2.29506E+01
 -1       453 3.81199E+02 1.93169E+01-2.29534E+01
 -1       454 3.85631E+02 1.39442E+01-2.65624E+01
 -1       455 3.41586E+01 1.68917E+01-2.47926E+01
 -1       456 3.97240E+01 2.04359E+01-2.19630E+01
 -1       457 4.23953E+01 2.51067E+01-1.64212E+01
 -1       458 3.74634E+02 2.21781E+01-2.02023E+01
 -1       459 3.79906E+02 2.35783E+01-1.85489E+01
 -1       460 2.74261E+02 1.94015E+01 2.28819E+01
 -1       461 2.70101E+02 1.45423E+01 2.62397E+01
 -1       462 2.68673E+02 2.09792E+01 2.14446E+01
 -1       463 2.64058E+02 1.71266E+01 2.46309E+01
 -1       464 3.52814E+02-2.60399E+01 1.48970E+01
 -1       465 3.48494E+02-2.30703E+01 1.91771E+01
 -1       466 3.53502E+02-2.85826E+01 9.11228E+00
 -1       467 3.42431E+02-2.27793E+01 1.95219E+01
 -1       468 3.85858E+02-1.30265E+01-2.70243E+01
 -1       469 3.25991E+02 2.63304E+01 1.43774E+01
 -1       470 3.25587E+02 2.25257E+01 1.98140E+01
 -1       471 3.19765E+02 2.54888E+01 1.58216E+01
 -1       472 1.36006E+02-1.22303E+01 2.73938E+01
 -1       473 1.34032E+02-6.30760E+00 2.93294E+01
 -1       474 1.41414E+02-9.66855E+00 2.83993E+01
 -1       475 1.40672E+02-4.14467E+00 2.97123E+01
 -1       476 3.26041E+02 1.56944E+01 2.55673E+01
 -1       477 3.54391E+02-1.34734E+01 2.68042E+01
 -1       478 3.57562E+02-1.88318E+01 2.33530E+01
 -1       479 3.51686E+02-1.94381E+01 2.28508E+01
 -1       480 3.88283E+02-2.90409E+01-7.52506E+00
 -1       481 3.94235E+02-2.78697E+01-1.11032E+01
 -1       482 3.88272E+02-2.58271E+01-1.52630E+01
 -1       483 3.83398E+02-2.81448E+01-1.03861E+01
 -1       484 3.81965E+02-2.94824E+01-5.54851E+00
 -1       485 1.30101E+02-1.25183E+01 2.72634E+01
 -1       486 1.33839E+02-1.77529E+01 2.41833E+01
 -1       487 3.90978E+02 2.66921E+01 1.36941E+01
 -1       488 5.27493E+01 9.63561E+00 2.84105E+01
 -1       489 3.55393E+02 1.87018E+01 2.34572E+01
 -1       490 3.35305E+02-2.15473E+01 2.08737E+01
 -1       491 3.51947E+02 1.57497E+00-2.99586E+01
 -1       492 3.59339E+02-1.28665E+00-2.99724E+01
 -1       493 3.57998E+02 5.66356E+00-2.94606E+01
 -1       494 7.15318E+01-2.45023E+01 1.73100E+01
 -1       495 3.53273E+02-5.31399E+00-2.95256E+01
 -1       496 1.42251E+02-1.67815E+01 2.48673E+01
 -1       497 5.83005E+01-2.91301E+01-7.17204E+00
 -1       498 6.45209E+01-2.93595E+01-6.16611E+00
 -1       499 5.59761E+01-2.64960E+01-1.40699E+01
 -1       500 1.27229E+02-1.78929E+01 2.40800E+01
 -1       501 1.43040E+02 2.86620E+01-8.85943E+00
 -1       502 1.49809E+02 2.87568E+01-8.54661E+00
 -1       503 1.45783E+02 2.99503E+01-1.72637E+00
 -1       504 2.75182E+01-2.74903E+01 1.20118E+01
 -1       505 2.51395E+01-2.96717E+01 4.42586E+00
 -1       506 2.11706E+01-2.82421E+01 1.01185E+01
 -1       507 3.66658E+02 2.27720E+01 1.95304E+01
 -1       508 3.62043E+02 2.56000E+01 1.56410E+01
 -1       509 1.51713E+01-2.76038E+01 1.17486E+01
 -1       510 3.16449E+02 5.22624E+00 2.95413E+01
 -1       511 3.09001E+02 7.06377E+00 2.91565E+01
 -1       512 8.63641E+01-2.95456E+01-5.20159E+00
 -1       513 8.11980E+01-2.99957E+01-5.10401E-01
 -1       514 8.73198E+01-2.98036E+01 3.42678E+00
 -1       515 1.47277E+02 2.61719E+01-1.46640E+01
 -1       516 2.87004E+02-1.65075E+01-2.50500E+01
 -1       517 2.93230E+02-1.37789E+01-2.66485E+01
 -1       518 2.87557E+02-8.21206E+00-2.88542E+01
 -1       519 3.61297E+02 2.06006E+01 2.18086E+01
 -1       520 2.99515E+01 2.95837E+01-4.98053E+00
 -1       521 2.58190E+01 2.99158E+01 2.24581E+00
 -1       522 2.28605E+01 2.96829E+01-4.35037E+00
 -1       523 1.49846E+01 2.97518E+01-3.85132E+00
 -1       524 3.55695E+01-2.98575E+01-2.92078E+00
 -1       525 1.57752E+02 2.86219E+01-8.98814E+00
 -1       526 1.53836E+02 2.99605E+01-1.53911E+00
 -1       527 3.26739E+02-1.35271E+01 2.67772E+01
 -1       528 3.19812E+02-1.56651E+01 2.55853E+01
 -1       529 3.23340E+02-7.35998E+00 2.90832E+01
 -1       530 1.52610E+02 2.67319E+01-1.36164E+01
 -1       531 3.55513E+02-2.29403E+01 1.93325E+01
 -1       532 3.58620E+02-2.63159E+01 1.44038E+01
 -1       533 7.82684E+01-1.53190E+01 2.57939E+01
 -1       534 3.64994E+02-2.76067E+01 1.17419E+01
 -1       535 3.59237E+02-2.88878E+01 8.09281E+00
 -1       536 3.44472E+02-1.72811E+01 2.45227E+01
 -1       537 3.62974E+02 2.28431E+01-1.94472E+01
 -1       538 3.68638E+02 2.02726E+01-2.21138E+01
 -1       539 3.56686E+02 2.54197E+01-1.59323E+01
 -1       540 2.51957E+02 2.59617E+01-1.50330E+01
 -1       541 2.47017E+02 2.50243E+01-1.65465E+01
 -1       542 2.51153E+02 2.15043E+01-2.09181E+01
 -1       543 3.83380E+02 2.99357E+01-1.96314E+00
 -1       544 3.76856E+02 2.97069E+01-4.18300E+00
 -1       545 3.82245E+02 2.88713E+01-8.15171E+00
 -1       546 8.04339E+01-2.46051E+01-1.71637E+01
 -1       547 8.12651E+01-1.91046E+01-2.31304E+01
 -1       548 7.49781E+01-2.17076E+01-2.07070E+01
 -1       549 1.22970E+01 8.59046E+00-2.87438E+01
 -1       550 1.27299E+02-7.73217E+00 2.89864E+01
 -1       551 1.25689E+01 2.54763E+00-2.98916E+01
 -1       552 3.77931E+02-2.80796E+01 1.05610E+01
 -1       553 2.41200E+01 2.80231E+01-1.07100E+01
 -1       554 2.04206E+01 2.48017E+01-1.68782E+01
 -1       555 3.30942E+02 1.94173E+01 2.28685E+01
 -1       556 3.60077E+02 1.40884E+01 2.64862E+01
 -1       557 3.65784E+02 8.14039E+00 2.88745E+01
 -1       558 3.75553E+02 2.81293E+01-1.04279E+01
 -1       559 3.63598E+02-2.27177E+01 1.95935E+01
 -1       560 3.62070E+02-1.44837E+01 2.62721E+01
 -1       561 3.66592E+01-2.39006E+01 1.81318E+01
 -1       562 3.88945E+01-1.85442E+01 2.35820E+01
 -1       563 1.65996E+02 2.88565E+01-8.20389E+00
 -1       564 1.61836E+02 2.99606E+01-1.53777E+00
 -1       565 7.96556E+01-8.56792E+00 2.87505E+01
 -1       566 2.21793E+02 2.04826E+01-2.19195E+01
 -1       567 2.29547E+02 2.18510E+01-2.05556E+01
 -1       568 2.22568E+02 2.49233E+01-1.66981E+01
 -1       569 6.26216E+01 2.65544E+01 1.39594E+01
 -1       570 5.71539E+01 2.50276E+01 1.65414E+01
 -1       571 5.63814E+01 2.84451E+01 9.53291E+00
 -1       572 1.63478E+02 2.63173E+01-1.44013E+01
 -1       573 3.92943E+01 7.38167E+00-2.90777E+01
 -1       574 3.38716E+01 1.03281E+01-2.81661E+01
 -1       575 3.30448E+01 2.82248E+00-2.98669E+01
 -1       576 4.12343E+01 1.45760E+01-2.62210E+01
 -1       577 1.73646E+02 2.88836E+01-8.10803E+00
 -1       578 1.69836E+02 2.99605E+01-1.53885E+00
 -1       579 4.69958E+01-2.89784E+01-7.76238E+00
 -1       580 4.12308E+01-2.95653E+01-5.08834E+00
 -1       581 3.66621E+02 4.36909E+00-2.96801E+01
 -1       582 3.64603E+02 1.13980E+01-2.77504E+01
 -1       583 3.56673E+02 1.31112E+01-2.69833E+01